nohup: ignoring input
 argument  1 = test-azulene.nw
                                         
                                         


              Northwest Computational Chemistry Package (NWChem) 6.6
              ------------------------------------------------------


                    Environmental Molecular Sciences Laboratory
                       Pacific Northwest National Laboratory
                                Richland, WA 99352

                              Copyright (c) 1994-2015
                       Pacific Northwest National Laboratory
                            Battelle Memorial Institute

             NWChem is an open-source computational chemistry package
                        distributed under the terms of the
                      Educational Community License (ECL) 2.0
             A copy of the license is included with this distribution
                              in the LICENSE.TXT file

                                  ACKNOWLEDGMENT
                                  --------------

            This software and its documentation were developed at the
            EMSL at Pacific Northwest National Laboratory, a multiprogram
            national laboratory, operated for the U.S. Department of Energy
            by Battelle under Contract Number DE-AC05-76RL01830. Support
            for this work was provided by the Department of Energy Office
            of Biological and Environmental Research, Office of Basic
            Energy Sciences, and the Office of Advanced Scientific Computing.


           Job information
           ---------------

    hostname        = localhost.localdomain
    program         = nwchem
    date            = Tue Dec 13 14:05:01 2016

    compiled        = Mon_Dec_12_21:09:43_2016
    source          = /usr/local/src/NWCHEM/nwchem-6.6
    nwchem branch   = 6.6
    nwchem revision = 27746
    ga revision     = 10594
    input           = test-azulene.nw
    prefix          = test-azulene.
    data base       = ./test-azulene.db
    status          = restart
    nproc           =        1
    time left       =     -1s



           Memory information
           ------------------

    heap     =   13107196 doubles =    100.0 Mbytes
    stack    =   13107201 doubles =    100.0 Mbytes
    global   =   26214400 doubles =    200.0 Mbytes (distinct from heap & stack)
    total    =   52428797 doubles =    400.0 Mbytes
    verify   = yes
    hardfail = no 


           Directory information
           ---------------------

  0 permanent = .
  0 scratch   = .


           Previous task information
           -------------------------

    Theory    = opt                             
    Operation = property                      
    Status    = fail                          
    Qmmm      = F
    Ignore    = F


           Geometries in the database
           --------------------------

       Name                              Natoms  Last Modified
       --------------------------------  ------  ------------------------
    1  geometry                              18  Tue Dec 13 14:01:51 2016  

  The geometry named "geometry" is the default for restart



           Basis sets in the database
           --------------------------

       Name                              Natoms  Last Modified
        --------------------------------  ------  ------------------------
    1  ao basis                               0  Tue Dec 13 14:01:51 2016  

  The basis set named "ao basis" is the default AO basis for restart




                                NWChem Input Module
                                -------------------


                                   test-azulene
                                   ------------

 Scaling coordinates for geometry "geometry" by  1.889725989
 (inverse scale =  0.529177249)

 Turning off AUTOSYM since
 SYMMETRY directive was detected!


          ------
          auto-z
          ------


                             Geometry "geometry" -> ""
                             -------------------------

 Output coordinates in angstroms (scale by  1.889725989 to convert to a.u.)

  No.       Tag          Charge          X              Y              Z
 ---- ---------------- ---------- -------------- -------------- --------------
    1 C                    6.0000    -1.04911469    -2.26101390    -0.00067009
    2 C                    6.0000     0.31161531    -2.26101390    -0.00067009
    3 C                    6.0000     1.20034031    -1.15892690    -0.00067009
    4 C                    6.0000    -1.95391369    -1.17209390     0.00013491
    5 C                    6.0000     0.89300431     0.16234610    -0.00040009
    6 C                    6.0000    -1.69308469     0.16255310     0.00102291
    7 C                    6.0000    -0.44090169     0.81335710     0.00068991
    8 H                    1.0000    -1.53979269    -3.25662890    -0.00124909
    9 H                    1.0000     0.80963131    -3.25115490    -0.00100809
   10 H                    1.0000     2.27760031    -1.42431490    -0.00108309
   11 H                    1.0000    -3.02225869    -1.46780690     0.00023591
   12 H                    1.0000    -2.56602269     0.84771610     0.00190391
   13 C                    6.0000     1.86449731     1.24891410    -0.00073809
   14 H                    1.0000     2.94133331     1.09567810    -0.00173309
   15 C                    6.0000     1.18453131     2.45058310     0.00024991
   16 H                    1.0000     1.62137231     3.44837910     0.00030591
   17 C                    6.0000    -0.23637969     2.19009310     0.00114291
   18 H                    1.0000    -1.00542769     2.95934410     0.00207491

      Atomic Mass 
      ----------- 

      C                 12.000000
      H                  1.007825


 Effective nuclear repulsion energy (a.u.)     453.5603016150

            Nuclear Dipole moment (a.u.) 
            ----------------------------
        X                 Y               Z
 ---------------- ---------------- ----------------
     0.0000000000    -0.0000000000    -0.0000000000



                                Z-matrix (autoz)
                                -------- 

 Units are Angstrom for bonds and degrees for angles

      Type          Name      I     J     K     L     M      Value
      ----------- --------  ----- ----- ----- ----- ----- ----------
    1 Stretch                  1     2                       1.36073
    2 Stretch                  1     4                       1.41577
    3 Stretch                  1     8                       1.10996
    4 Stretch                  2     3                       1.41578
    5 Stretch                  2     9                       1.10833
    6 Stretch                  3     5                       1.35655
    7 Stretch                  3    10                       1.10947
    8 Stretch                  4     6                       1.35990
    9 Stretch                  4    11                       1.10852
   10 Stretch                  5     7                       1.48429
   11 Stretch                  5    13                       1.45754
   12 Stretch                  6     7                       1.41121
   13 Stretch                  6    12                       1.10972
   14 Stretch                  7    17                       1.39184
   15 Stretch                 13    14                       1.08768
   16 Stretch                 13    15                       1.38071
   17 Stretch                 15    16                       1.08923
   18 Stretch                 15    17                       1.44459
   19 Stretch                 17    18                       1.08774
   20 Bend                     1     2     3               128.88277
   21 Bend                     1     2     9               116.70124
   22 Bend                     1     4     6               129.21844
   23 Bend                     1     4    11               114.25182
   24 Bend                     2     1     4               129.72366
   25 Bend                     2     1     8               116.23588
   26 Bend                     2     3     5               128.02274
   27 Bend                     2     3    10               115.04327
   28 Bend                     3     2     9               114.41598
   29 Bend                     3     5     7               129.10912
   30 Bend                     3     5    13               125.10582
   31 Bend                     4     1     8               114.04046
   32 Bend                     4     6     7               128.52038
   33 Bend                     4     6    12               117.07024
   34 Bend                     5     3    10               116.93399
   35 Bend                     5     7     6               126.52287
   36 Bend                     5     7    17               107.56482
   37 Bend                     5    13    14               123.70074
   38 Bend                     5    13    15               108.69690
   39 Bend                     6     4    11               116.52973
   40 Bend                     6     7    17               125.91231
   41 Bend                     7     5    13               105.78506
   42 Bend                     7     6    12               114.40938
   43 Bend                     7    17    15               108.83826
   44 Bend                     7    17    18               126.55775
   45 Bend                    13    15    16               126.85249
   46 Bend                    13    15    17               109.11497
   47 Bend                    14    13    15               127.60236
   48 Bend                    15    17    18               124.60400
   49 Bend                    16    15    17               124.03253
   50 Torsion                  1     2     3     5           0.01448
   51 Torsion                  1     2     3    10        -179.97646
   52 Torsion                  1     4     6     7           0.03555
   53 Torsion                  1     4     6    12        -179.97955
   54 Torsion                  2     1     4     6           0.00537
   55 Torsion                  2     1     4    11        -179.98188
   56 Torsion                  2     3     5     7           0.03604
   57 Torsion                  2     3     5    13        -179.98466
   58 Torsion                  3     2     1     4          -0.04236
   59 Torsion                  3     2     1     8         179.96668
   60 Torsion                  3     5     7     6          -0.03384
   61 Torsion                  3     5     7    17         179.97425
   62 Torsion                  3     5    13    14           0.03086
   63 Torsion                  3     5    13    15        -179.97550
   64 Torsion                  4     1     2     9         179.97720
   65 Torsion                  4     6     7     5          -0.01624
   66 Torsion                  4     6     7    17         179.97423
   67 Torsion                  5     3     2     9         179.99529
   68 Torsion                  5     7     6    12         179.99853
   69 Torsion                  5     7    17    15           0.00555
   70 Torsion                  5     7    17    18        -179.99094
   71 Torsion                  5    13    15    16         179.99915
   72 Torsion                  5    13    15    17          -0.00463
   73 Torsion                  6     4     1     8         179.99649
   74 Torsion                  6     7     5    13         179.98375
   75 Torsion                  6     7    17    15        -179.98641
   76 Torsion                  6     7    17    18           0.01709
   77 Torsion                  7     5     3    10        -179.97318
   78 Torsion                  7     5    13    14        -179.98583
   79 Torsion                  7     5    13    15           0.00781
   80 Torsion                  7     6     4    11        -179.97745
   81 Torsion                  7    17    15    13          -0.00067
   82 Torsion                  7    17    15    16         179.99569
   83 Torsion                  8     1     2     9          -0.01376
   84 Torsion                  8     1     4    11           0.00924
   85 Torsion                  9     2     3    10           0.00435
   86 Torsion                 10     3     5    13           0.00613
   87 Torsion                 11     4     6    12           0.00745
   88 Torsion                 12     6     7    17          -0.01100
   89 Torsion                 13     5     7    17          -0.00815
   90 Torsion                 13    15    17    18         179.99591
   91 Torsion                 14    13    15    16          -0.00753
   92 Torsion                 14    13    15    17         179.98870
   93 Torsion                 16    15    17    18          -0.00773


            XYZ format geometry
            -------------------
    18
 geometry
 C                    -1.04911469    -2.26101390    -0.00067009
 C                     0.31161531    -2.26101390    -0.00067009
 C                     1.20034031    -1.15892690    -0.00067009
 C                    -1.95391369    -1.17209390     0.00013491
 C                     0.89300431     0.16234610    -0.00040009
 C                    -1.69308469     0.16255310     0.00102291
 C                    -0.44090169     0.81335710     0.00068991
 H                    -1.53979269    -3.25662890    -0.00124909
 H                     0.80963131    -3.25115490    -0.00100809
 H                     2.27760031    -1.42431490    -0.00108309
 H                    -3.02225869    -1.46780690     0.00023591
 H                    -2.56602269     0.84771610     0.00190391
 C                     1.86449731     1.24891410    -0.00073809
 H                     2.94133331     1.09567810    -0.00173309
 C                     1.18453131     2.45058310     0.00024991
 H                     1.62137231     3.44837910     0.00030591
 C                    -0.23637969     2.19009310     0.00114291
 H                    -1.00542769     2.95934410     0.00207491

 ==============================================================================
                                internuclear distances
 ------------------------------------------------------------------------------
       center one      |      center two      | atomic units |  angstroms
 ------------------------------------------------------------------------------
    2 C                |   1 C                |     2.57141  |     1.36073
    3 C                |   2 C                |     2.67543  |     1.41578
    4 C                |   1 C                |     2.67542  |     1.41577
    5 C                |   3 C                |     2.56350  |     1.35655
    6 C                |   4 C                |     2.56983  |     1.35990
    7 C                |   5 C                |     2.80490  |     1.48429
    7 C                |   6 C                |     2.66680  |     1.41121
    8 H                |   1 C                |     2.09752  |     1.10996
    9 H                |   2 C                |     2.09444  |     1.10833
   10 H                |   3 C                |     2.09659  |     1.10947
   11 H                |   4 C                |     2.09479  |     1.10852
   12 H                |   6 C                |     2.09706  |     1.10972
   13 C                |   5 C                |     2.75436  |     1.45754
   14 H                |  13 C                |     2.05543  |     1.08768
   15 C                |  13 C                |     2.60917  |     1.38071
   16 H                |  15 C                |     2.05835  |     1.08923
   17 C                |   7 C                |     2.63020  |     1.39184
   17 C                |  15 C                |     2.72988  |     1.44459
   18 H                |  17 C                |     2.05553  |     1.08774
 ------------------------------------------------------------------------------
                         number of included internuclear distances:         19
 ==============================================================================



 ==============================================================================
                                 internuclear angles
 ------------------------------------------------------------------------------
        center 1       |       center 2       |       center 3       |  degrees
 ------------------------------------------------------------------------------
    2 C                |   1 C                |   4 C                |   129.72
    2 C                |   1 C                |   8 H                |   116.24
    4 C                |   1 C                |   8 H                |   114.04
    1 C                |   2 C                |   3 C                |   128.88
    1 C                |   2 C                |   9 H                |   116.70
    3 C                |   2 C                |   9 H                |   114.42
    2 C                |   3 C                |   5 C                |   128.02
    2 C                |   3 C                |  10 H                |   115.04
    5 C                |   3 C                |  10 H                |   116.93
    1 C                |   4 C                |   6 C                |   129.22
    1 C                |   4 C                |  11 H                |   114.25
    6 C                |   4 C                |  11 H                |   116.53
    3 C                |   5 C                |   7 C                |   129.11
    3 C                |   5 C                |  13 C                |   125.11
    7 C                |   5 C                |  13 C                |   105.79
    4 C                |   6 C                |   7 C                |   128.52
    4 C                |   6 C                |  12 H                |   117.07
    7 C                |   6 C                |  12 H                |   114.41
    5 C                |   7 C                |   6 C                |   126.52
    5 C                |   7 C                |  17 C                |   107.56
    6 C                |   7 C                |  17 C                |   125.91
    5 C                |  13 C                |  14 H                |   123.70
    5 C                |  13 C                |  15 C                |   108.70
   14 H                |  13 C                |  15 C                |   127.60
   13 C                |  15 C                |  16 H                |   126.85
   13 C                |  15 C                |  17 C                |   109.11
   16 H                |  15 C                |  17 C                |   124.03
    7 C                |  17 C                |  15 C                |   108.84
    7 C                |  17 C                |  18 H                |   126.56
   15 C                |  17 C                |  18 H                |   124.60
 ------------------------------------------------------------------------------
                            number of included internuclear angles:         30
 ==============================================================================





 Summary of "ao basis" -> "" (cartesian)
 ------------------------------------------------------------------------------
       Tag                 Description            Shells   Functions and Types
 ---------------- ------------------------------  ------  ---------------------
 *                           6-31G*                   on all atoms 


                              NWChem Property Module
                              ----------------------


                                   test-azulene

  itol2e modified to match energy
  convergence criterion.

                                 NWChem DFT Module
                                 -----------------


                                   test-azulene


                      Basis "ao basis" -> "ao basis" (cartesian)
                      -----
  C (Carbon)
  ----------
            Exponent  Coefficients 
       -------------- ---------------------------------------------------------
  1 S  3.04752490E+03  0.001835
  1 S  4.57369510E+02  0.014037
  1 S  1.03948690E+02  0.068843
  1 S  2.92101550E+01  0.232184
  1 S  9.28666300E+00  0.467941
  1 S  3.16392700E+00  0.362312

  2 S  7.86827240E+00 -0.119332
  2 S  1.88128850E+00 -0.160854
  2 S  5.44249300E-01  1.143456

  3 P  7.86827240E+00  0.068999
  3 P  1.88128850E+00  0.316424
  3 P  5.44249300E-01  0.744308

  4 S  1.68714400E-01  1.000000

  5 P  1.68714400E-01  1.000000

  6 D  8.00000000E-01  1.000000

  H (Hydrogen)
  ------------
            Exponent  Coefficients 
       -------------- ---------------------------------------------------------
  1 S  1.87311370E+01  0.033495
  1 S  2.82539370E+00  0.234727
  1 S  6.40121700E-01  0.813757

  2 S  1.61277800E-01  1.000000



 Summary of "ao basis" -> "ao basis" (cartesian)
 ------------------------------------------------------------------------------
       Tag                 Description            Shells   Functions and Types
 ---------------- ------------------------------  ------  ---------------------
 C                           6-31G*                  6       15   3s2p1d
 H                           6-31G*                  2        2   2s




 Summary of "ao basis" -> "ao basis" (cartesian)
 ------------------------------------------------------------------------------
       Tag                 Description            Shells   Functions and Types
 ---------------- ------------------------------  ------  ---------------------
 C                           6-31G*                  6       15   3s2p1d
 H                           6-31G*                  2        2   2s


  Caching 1-el integrals 
  itol2e modified to match energy
  convergence criterion.

            General Information
            -------------------
          SCF calculation type: DFT
          Wavefunction type:  closed shell.
          No. of atoms     :    18
          No. of electrons :    68
           Alpha electrons :    34
            Beta electrons :    34
          Charge           :     0
          Spin multiplicity:     1
          Use of symmetry is: off; symmetry adaption is: off
          Maximum number of iterations:  30
          AO basis - number of functions:   166
                     number of shells:    76
          Convergence on energy requested: 1.00D-07
          Convergence on density requested: 1.00D-05
          Convergence on gradient requested: 5.00D-04

              XC Information
              --------------
                       M06-2X Method XC Functional
                     Hartree-Fock (Exact) Exchange  0.540          
                        M06-2X Exchange Functional  1.000          
                      M06-2X Correlation Potential  1.000          

             Grid Information
             ----------------
          Grid used for XC integration:  fine      
          Radial quadrature: Mura-Knowles        
          Angular quadrature: Lebedev. 
          Tag              B.-S. Rad. Rad. Pts. Rad. Cut. Ang. Pts.
          ---              ---------- --------- --------- ---------
          C                   0.70       70          14.0       590
          H                   0.35       60          14.0       590
          Grid pruning is: on 
          Number of quadrature shells:  1180
          Spatial weights used:  Erf1

          Convergence Information
          -----------------------
          Convergence aids based upon iterative change in 
          total energy or number of iterations. 
          Levelshifting, if invoked, occurs when the 
          HOMO/LUMO gap drops below (HL_TOL): 1.00D-02
          DIIS, if invoked, will attempt to extrapolate 
          using up to (NFOCK): 10 stored Fock matrices.

                    Damping( 0%)  Levelshifting(0.0)       DIIS
                  --------------- ------------------- ---------------
          dE  on:    start             N/A                start   
          dE off:    2 iters           N/A               30 iters 


      Screening Tolerance Information
      -------------------------------
          Density screening/tol_rho: 1.00D-11
          AO Gaussian exp screening on grid/accAOfunc:  16
          CD Gaussian exp screening on grid/accCDfunc:  20
          XC Gaussian exp screening on grid/accXCfunc:  20
          Schwarz screening/accCoul: 1.00D-08


 Loading old vectors from job with title :

test-azulene

   Time after variat. SCF:      0.3
   Time prior to 1st pass:      0.3

 Integral file          = ./test-azulene.aoints.0
 Record size in doubles =  65536        No. of integs per rec  =  43688
 Max. records in memory =      0        Max. records in file   = 179089
 No. of bits per label  =      8        No. of bits per value  =     64


 #quartets = 2.989D+06 #integrals = 5.175D+07 #direct =  0.0% #cached =100.0%


 Grid_pts file          = ./test-azulene.gridpts.0
 Record size in doubles =  12289        No. of grid_pts per rec  =   3070
 Max. records in memory =    251        Max. recs in file   =    944654

 Grid integrated density:      67.999971683457
 Requested integration accuracy:   0.10E-06

           Memory utilization after 1st SCF pass: 
           Heap Space remaining (MW):       10.02            10016140
          Stack Space remaining (MW):       13.11            13105828

   convergence    iter        energy       DeltaE   RMS-Dens  Diis-err    time
 ---------------- ----- ----------------- --------- --------- ---------  ------
 d= 0,ls=0.0,diis     1   -385.6521109266 -8.39D+02  2.08D-05  9.82D-06    18.1
 Grid integrated density:      67.999971685957
 Requested integration accuracy:   0.10E-06
 d= 0,ls=0.0,diis     2   -385.6521114643 -5.38D-07  4.85D-06  4.84D-07    27.0
 Grid integrated density:      67.999971680657
 Requested integration accuracy:   0.10E-06
 d= 0,ls=0.0,diis     3   -385.6521115094 -4.52D-08  2.67D-06  1.76D-07    36.0


         Total DFT energy =     -385.652111509420
      One electron energy =    -1417.586000397054
           Coulomb energy =      635.342769788652
    Exchange-Corr. energy =      -56.969182516037
 Nuclear repulsion energy =      453.560301615019

 Numeric. integr. density =       67.999971680657

     Total iterative time =     35.7s



                       DFT Final Molecular Orbital Analysis
                       ------------------------------------

 Vector   10  Occ=2.000000D+00  E=-1.053352D+01
              MO Center= -2.4D-01,  2.2D+00,  1.1D-03, r^2= 3.0D-02
   Bfn.  Coefficient  Atom+Function         Bfn.  Coefficient  Atom+Function  
  ----- ------------  ---------------      ----- ------------  ---------------
   150      0.993429  17 C  s         

 Vector   11  Occ=2.000000D+00  E=-9.729291D-01
              MO Center=  2.4D-01,  4.3D-01,  8.4D-05, r^2= 3.2D+00
   Bfn.  Coefficient  Atom+Function         Bfn.  Coefficient  Atom+Function  
  ----- ------------  ---------------      ----- ------------  ---------------
    62      0.202252   5 C  s                92      0.197640   7 C  s         

 Vector   12  Occ=2.000000D+00  E=-9.214145D-01
              MO Center= -2.8D-01, -6.6D-01, -1.8D-04, r^2= 5.0D+00
   Bfn.  Coefficient  Atom+Function         Bfn.  Coefficient  Atom+Function  
  ----- ------------  ---------------      ----- ------------  ---------------
     2      0.221211   1 C  s                17      0.189880   2 C  s         
    47      0.178476   4 C  s         

 Vector   13  Occ=2.000000D+00  E=-8.841922D-01
              MO Center= -3.5D-01, -5.8D-01,  5.3D-05, r^2= 3.7D+00
   Bfn.  Coefficient  Atom+Function         Bfn.  Coefficient  Atom+Function  
  ----- ------------  ---------------      ----- ------------  ---------------
    77     -0.231031   6 C  s                32      0.225945   3 C  s         
    47     -0.177090   4 C  s                81     -0.157867   6 C  s         
    17      0.156523   2 C  s                36      0.154742   3 C  s         

 Vector   14  Occ=2.000000D+00  E=-8.287770D-01
              MO Center=  8.8D-02, -6.8D-02, -9.8D-05, r^2= 5.5D+00
   Bfn.  Coefficient  Atom+Function         Bfn.  Coefficient  Atom+Function  
  ----- ------------  ---------------      ----- ------------  ---------------
     2      0.207401   1 C  s               134      0.200633  15 C  s         
     6      0.172066   1 C  s               138      0.156885  15 C  s         
    32     -0.152201   3 C  s         

 Vector   15  Occ=2.000000D+00  E=-7.885104D-01
              MO Center=  5.1D-02,  3.1D-01,  7.5D-05, r^2= 5.2D+00
   Bfn.  Coefficient  Atom+Function         Bfn.  Coefficient  Atom+Function  
  ----- ------------  ---------------      ----- ------------  ---------------
   117      0.200954  13 C  s               151     -0.194723  17 C  s         
    47      0.174010   4 C  s                92     -0.165617   7 C  s         
   121      0.160627  13 C  s                17     -0.156637   2 C  s         

 Vector   16  Occ=2.000000D+00  E=-7.287966D-01
              MO Center=  6.8D-02, -6.3D-02, -4.1D-05, r^2= 6.0D+00
   Bfn.  Coefficient  Atom+Function         Bfn.  Coefficient  Atom+Function  
  ----- ------------  ---------------      ----- ------------  ---------------
   134     -0.183886  15 C  s                 2      0.169529   1 C  s         
    62      0.161812   5 C  s               138     -0.150730  15 C  s         

 Vector   17  Occ=2.000000D+00  E=-6.954930D-01
              MO Center= -8.6D-02,  7.4D-02,  5.3D-05, r^2= 6.3D+00
   Bfn.  Coefficient  Atom+Function         Bfn.  Coefficient  Atom+Function  
  ----- ------------  ---------------      ----- ------------  ---------------
   151      0.189306  17 C  s               117     -0.174912  13 C  s         
     3     -0.162531   1 C  px              155      0.152808  17 C  s         

 Vector   18  Occ=2.000000D+00  E=-6.246589D-01
              MO Center=  4.5D-01,  7.1D-01,  4.4D-05, r^2= 5.6D+00
   Bfn.  Coefficient  Atom+Function         Bfn.  Coefficient  Atom+Function  
  ----- ------------  ---------------      ----- ------------  ---------------
    63      0.183892   5 C  px               94      0.174174   7 C  py        
   134     -0.169522  15 C  s         

 Vector   19  Occ=2.000000D+00  E=-6.160689D-01
              MO Center=  2.1D-03,  3.4D-02,  2.1D-05, r^2= 6.3D+00
   Bfn.  Coefficient  Atom+Function         Bfn.  Coefficient  Atom+Function  
  ----- ------------  ---------------      ----- ------------  ---------------
    64     -0.196440   5 C  py               93     -0.196858   7 C  px        
    34      0.185996   3 C  py               79      0.153272   6 C  py        

 Vector   20  Occ=2.000000D+00  E=-5.822699D-01
              MO Center= -2.1D-01, -3.7D-01, -5.7D-06, r^2= 5.5D+00
   Bfn.  Coefficient  Atom+Function         Bfn.  Coefficient  Atom+Function  
  ----- ------------  ---------------      ----- ------------  ---------------
     3      0.213477   1 C  px               49      0.207378   4 C  py        
    34      0.195811   3 C  py               78     -0.192668   6 C  px        
    18     -0.181872   2 C  px               92     -0.153234   7 C  s         

 Vector   21  Occ=2.000000D+00  E=-5.637653D-01
              MO Center= -2.5D-01, -5.4D-01, -2.2D-04, r^2= 7.6D+00
   Bfn.  Coefficient  Atom+Function         Bfn.  Coefficient  Atom+Function  
  ----- ------------  ---------------      ----- ------------  ---------------
     4      0.235044   1 C  py               19      0.157046   2 C  py        
    48      0.153786   4 C  px              106     -0.154301   8 H  s         

 Vector   22  Occ=2.000000D+00  E=-5.183914D-01
              MO Center=  1.9D-01, -4.2D-03, -1.2D-04, r^2= 7.7D+00
   Bfn.  Coefficient  Atom+Function         Bfn.  Coefficient  Atom+Function  
  ----- ------------  ---------------      ----- ------------  ---------------
   136     -0.192801  15 C  py               48      0.187500   4 C  px        
   118     -0.181786  13 C  px        

 Vector   23  Occ=2.000000D+00  E=-5.156075D-01
              MO Center= -4.1D-01, -6.2D-01,  1.3D-04, r^2= 5.4D+00
   Bfn.  Coefficient  Atom+Function         Bfn.  Coefficient  Atom+Function  
  ----- ------------  ---------------      ----- ------------  ---------------
    33      0.252581   3 C  px               19     -0.222129   2 C  py        
    79     -0.210642   6 C  py               78      0.189472   6 C  px        
    48      0.169173   4 C  px              114     -0.152805  12 H  s         

 Vector   24  Occ=2.000000D+00  E=-4.646293D-01
              MO Center=  2.4D-02,  3.6D-01,  1.9D-04, r^2= 6.0D+00
   Bfn.  Coefficient  Atom+Function         Bfn.  Coefficient  Atom+Function  
  ----- ------------  ---------------      ----- ------------  ---------------
   153      0.280719  17 C  py               18      0.218261   2 C  px        
     3     -0.216899   1 C  px               94     -0.215298   7 C  py        
    81      0.208613   6 C  s               118     -0.182454  13 C  px        
    36     -0.162502   3 C  s               121      0.160230  13 C  s         

 Vector   25  Occ=2.000000D+00  E=-4.550368D-01
              MO Center=  6.2D-02,  5.5D-02,  5.0D-05, r^2= 4.0D+00
   Bfn.  Coefficient  Atom+Function         Bfn.  Coefficient  Atom+Function  
  ----- ------------  ---------------      ----- ------------  ---------------
    65      0.227966   5 C  pz               95      0.220872   7 C  pz        
    35      0.185822   3 C  pz               80      0.171372   6 C  pz        

 Vector   26  Occ=2.000000D+00  E=-4.515321D-01
              MO Center= -1.9D-02, -6.8D-02, -2.5D-04, r^2= 7.8D+00
   Bfn.  Coefficient  Atom+Function         Bfn.  Coefficient  Atom+Function  
  ----- ------------  ---------------      ----- ------------  ---------------
     4      0.270147   1 C  py              136      0.234099  15 C  py        
   119     -0.216868  13 C  py               49     -0.201323   4 C  py        
    79      0.187456   6 C  py              106     -0.177187   8 H  s         
    36     -0.175236   3 C  s                64      0.171212   5 C  py        
   107     -0.163869   8 H  s               155     -0.155410  17 C  s         

 Vector   27  Occ=2.000000D+00  E=-4.348648D-01
              MO Center=  4.3D-01,  1.3D-01, -2.5D-04, r^2= 6.6D+00
   Bfn.  Coefficient  Atom+Function         Bfn.  Coefficient  Atom+Function  
  ----- ------------  ---------------      ----- ------------  ---------------
    34      0.222202   3 C  py              136     -0.216536  15 C  py        
   119      0.200291  13 C  py               93     -0.198711   7 C  px        
   118     -0.183561  13 C  px               64     -0.178039   5 C  py        
    19     -0.172315   2 C  py               78      0.156963   6 C  px        

 Vector   28  Occ=2.000000D+00  E=-4.232349D-01
              MO Center=  4.9D-01,  1.1D+00,  2.7D-04, r^2= 5.5D+00
   Bfn.  Coefficient  Atom+Function         Bfn.  Coefficient  Atom+Function  
  ----- ------------  ---------------      ----- ------------  ---------------
   152     -0.318063  17 C  px              135      0.300315  15 C  px        
    64      0.176160   5 C  py              166      0.175949  18 H  s         
   165      0.167786  18 H  s         

 Vector   29  Occ=2.000000D+00  E=-4.101788D-01
              MO Center= -6.9D-01, -5.2D-01,  1.1D-04, r^2= 5.9D+00
   Bfn.  Coefficient  Atom+Function         Bfn.  Coefficient  Atom+Function  
  ----- ------------  ---------------      ----- ------------  ---------------
    48      0.264812   4 C  px               94      0.227518   7 C  py        
     3     -0.197276   1 C  px              113     -0.186574  11 H  s         
    78     -0.185541   6 C  px              112     -0.182929  11 H  s         
   153     -0.180226  17 C  py               18      0.173453   2 C  px        
   135      0.162975  15 C  px        

 Vector   30  Occ=2.000000D+00  E=-3.905722D-01
              MO Center= -1.8D-01, -4.0D-01, -1.7D-04, r^2= 5.9D+00
   Bfn.  Coefficient  Atom+Function         Bfn.  Coefficient  Atom+Function  
  ----- ------------  ---------------      ----- ------------  ---------------
     5      0.278156   1 C  pz               20      0.222499   2 C  pz        
    50      0.214475   4 C  pz              137     -0.198930  15 C  pz        
     9      0.176478   1 C  pz              120     -0.174211  13 C  pz        
   154     -0.167436  17 C  pz        

 Vector   31  Occ=2.000000D+00  E=-3.828594D-01
              MO Center=  1.6D-01,  5.8D-02, -2.7D-05, r^2= 5.5D+00
   Bfn.  Coefficient  Atom+Function         Bfn.  Coefficient  Atom+Function  
  ----- ------------  ---------------      ----- ------------  ---------------
    63      0.290650   5 C  px               93     -0.203152   7 C  px        
   119     -0.186235  13 C  py               33     -0.168892   3 C  px        
    94      0.164434   7 C  py                4     -0.154967   1 C  py        
    19      0.154164   2 C  py              115     -0.154611  12 H  s         
    78      0.150672   6 C  px        

 Vector   32  Occ=2.000000D+00  E=-3.580952D-01
              MO Center= -2.9D-01, -4.6D-01,  1.1D-04, r^2= 3.9D+00
   Bfn.  Coefficient  Atom+Function         Bfn.  Coefficient  Atom+Function  
  ----- ------------  ---------------      ----- ------------  ---------------
    80     -0.284218   6 C  pz               35      0.276471   3 C  pz        
    50     -0.214505   4 C  pz               20      0.201450   2 C  pz        
    84     -0.190839   6 C  pz               39      0.188368   3 C  pz        
    95     -0.175815   7 C  pz               65      0.173465   5 C  pz        

 Vector   33  Occ=2.000000D+00  E=-2.785193D-01
              MO Center=  4.1D-01,  4.9D-01, -5.8D-05, r^2= 5.3D+00
   Bfn.  Coefficient  Atom+Function         Bfn.  Coefficient  Atom+Function  
  ----- ------------  ---------------      ----- ------------  ---------------
   137      0.312776  15 C  pz              141      0.245095  15 C  pz        
     5      0.233595   1 C  pz               65     -0.200929   5 C  pz        
    35     -0.184611   3 C  pz              120      0.184555  13 C  pz        
    95     -0.183448   7 C  pz                9      0.179114   1 C  pz        
    39     -0.152574   3 C  pz        

 Vector   34  Occ=2.000000D+00  E=-2.334982D-01
              MO Center=  8.5D-02,  5.5D-01,  1.6D-04, r^2= 5.0D+00
   Bfn.  Coefficient  Atom+Function         Bfn.  Coefficient  Atom+Function  
  ----- ------------  ---------------      ----- ------------  ---------------
   154      0.311012  17 C  pz              120     -0.279295  13 C  pz        
   158      0.269181  17 C  pz              124     -0.244246  13 C  pz        
    50     -0.219164   4 C  pz               20      0.207224   2 C  pz        
    95      0.204737   7 C  pz               54     -0.201455   4 C  pz        
    24      0.190524   2 C  pz               65     -0.165746   5 C  pz        

 Vector   35  Occ=0.000000D+00  E=-3.824431D-02
              MO Center=  2.6D-03, -3.8D-01, -1.2D-04, r^2= 5.1D+00
   Bfn.  Coefficient  Atom+Function         Bfn.  Coefficient  Atom+Function  
  ----- ------------  ---------------      ----- ------------  ---------------
     9      0.354332   1 C  pz               39     -0.311494   3 C  pz        
     5      0.291735   1 C  pz               35     -0.272969   3 C  pz        
    84     -0.268024   6 C  pz               69      0.253863   5 C  pz        
   141     -0.239379  15 C  pz               80     -0.234129   6 C  pz        
    65      0.227447   5 C  pz              137     -0.222161  15 C  pz        

 Vector   36  Occ=0.000000D+00  E=-5.000838D-03
              MO Center= -2.9D-01, -2.4D-01,  1.1D-04, r^2= 5.4D+00
   Bfn.  Coefficient  Atom+Function         Bfn.  Coefficient  Atom+Function  
  ----- ------------  ---------------      ----- ------------  ---------------
    54     -0.358009   4 C  pz               24      0.347857   2 C  pz        
    84      0.291632   6 C  pz              158     -0.282608  17 C  pz        
    50     -0.277099   4 C  pz               20      0.269938   2 C  pz        
   124      0.255348  13 C  pz               80      0.237897   6 C  pz        
   154     -0.237411  17 C  pz               39     -0.234663   3 C  pz        

 Vector   37  Occ=0.000000D+00  E= 1.144534D-01
              MO Center= -7.9D-01, -2.0D+00, -4.6D-04, r^2= 7.7D+00
   Bfn.  Coefficient  Atom+Function         Bfn.  Coefficient  Atom+Function  
  ----- ------------  ---------------      ----- ------------  ---------------
   107      0.914414   8 H  s               109      0.812077   9 H  s         
   113      0.776308  11 H  s               111      0.649443  10 H  s         
     6     -0.644607   1 C  s                21     -0.560079   2 C  s         
   115      0.562724  12 H  s                51     -0.530117   4 C  s         
    36     -0.447695   3 C  s                81     -0.387928   6 C  s         

 Vector   38  Occ=0.000000D+00  E= 1.297764D-01
              MO Center=  7.4D-01,  1.4D+00,  9.2D-05, r^2= 4.7D+00
   Bfn.  Coefficient  Atom+Function         Bfn.  Coefficient  Atom+Function  
  ----- ------------  ---------------      ----- ------------  ---------------
   141      0.675722  15 C  pz              124     -0.568618  13 C  pz        
   158     -0.516201  17 C  pz              137      0.373362  15 C  pz        
   120     -0.302855  13 C  pz              154     -0.284528  17 C  pz        
     9      0.256286   1 C  pz               69      0.209520   5 C  pz        
    99      0.193326   7 C  pz               54     -0.188682   4 C  pz        

 Vector   39  Occ=0.000000D+00  E= 1.537991D-01
              MO Center= -3.7D-01, -6.9D-01,  1.5D-04, r^2= 1.0D+01
   Bfn.  Coefficient  Atom+Function         Bfn.  Coefficient  Atom+Function  
  ----- ------------  ---------------      ----- ------------  ---------------
   111      1.095585  10 H  s               115     -1.060601  12 H  s         
    36     -0.855310   3 C  s               113     -0.765834  11 H  s         
    81      0.746178   6 C  s                51      0.720054   4 C  s         
    21     -0.698295   2 C  s               109      0.690967   9 H  s         
    37     -0.588379   3 C  px               83      0.479066   6 C  py        

 Vector   40  Occ=0.000000D+00  E= 1.752357D-01
              MO Center=  9.7D-01,  1.9D+00,  1.3D-04, r^2= 8.7D+00
   Bfn.  Coefficient  Atom+Function         Bfn.  Coefficient  Atom+Function  
  ----- ------------  ---------------      ----- ------------  ---------------
   132      1.117846  14 H  s               166      1.100623  18 H  s         
   149      1.004474  16 H  s               138     -0.766651  15 C  s         
   155     -0.734148  17 C  s               121     -0.697936  13 C  s         
   122     -0.549935  13 C  px              107     -0.407955   8 H  s         
   157     -0.385564  17 C  py              156      0.376244  17 C  px        

 Vector   41  Occ=0.000000D+00  E= 1.803192D-01
              MO Center= -5.0D-01, -1.2D+00, -1.9D-04, r^2= 4.7D+00
   Bfn.  Coefficient  Atom+Function         Bfn.  Coefficient  Atom+Function  
  ----- ------------  ---------------      ----- ------------  ---------------
     9      0.646057   1 C  pz               24     -0.614739   2 C  pz        
    54     -0.593143   4 C  pz               39      0.474389   3 C  pz        
    84      0.454490   6 C  pz                5      0.331358   1 C  pz        
    20     -0.294680   2 C  pz               50     -0.288188   4 C  pz        
    69     -0.289050   5 C  pz              124      0.248620  13 C  pz        

 Vector   42  Occ=0.000000D+00  E= 1.953641D-01
              MO Center= -1.7D-01, -1.7D-02,  1.2D-04, r^2= 1.2D+01
   Bfn.  Coefficient  Atom+Function         Bfn.  Coefficient  Atom+Function  
  ----- ------------  ---------------      ----- ------------  ---------------
   138      1.143057  15 C  s                 6      1.114635   1 C  s         
   115      1.078891  12 H  s               111      0.960748  10 H  s         
    81     -0.929927   6 C  s               107     -0.928550   8 H  s         
   149     -0.909901  16 H  s                36     -0.717815   3 C  s         
    82      0.590499   6 C  px               96     -0.497791   7 C  s         

 Vector   43  Occ=0.000000D+00  E= 2.049360D-01
              MO Center=  4.2D-02,  2.9D-01,  3.3D-04, r^2= 4.0D+00
   Bfn.  Coefficient  Atom+Function         Bfn.  Coefficient  Atom+Function  
  ----- ------------  ---------------      ----- ------------  ---------------
    99     -0.745321   7 C  pz               69      0.711289   5 C  pz        
    84      0.525979   6 C  pz               39     -0.513199   3 C  pz        
   158      0.411309  17 C  pz               95     -0.405158   7 C  pz        
    65      0.388251   5 C  pz              124     -0.322670  13 C  pz        
    54     -0.290124   4 C  pz               24      0.236035   2 C  pz        

 Vector   44  Occ=0.000000D+00  E= 2.121774D-01
              MO Center=  3.1D-01, -8.6D-02, -4.3D-04, r^2= 1.3D+01
   Bfn.  Coefficient  Atom+Function         Bfn.  Coefficient  Atom+Function  
  ----- ------------  ---------------      ----- ------------  ---------------
   132      1.228969  14 H  s                21      1.128189   2 C  s         
   109     -1.112981   9 H  s               121     -1.091913  13 C  s         
   166     -1.050532  18 H  s               155      0.999105  17 C  s         
   113      0.958395  11 H  s                51     -0.910393   4 C  s         
   122     -0.649800  13 C  px               52      0.544702   4 C  px        

 Vector   45  Occ=0.000000D+00  E= 2.216223D-01
              MO Center=  2.7D-01,  1.3D+00,  1.0D-04, r^2= 1.4D+01
   Bfn.  Coefficient  Atom+Function         Bfn.  Coefficient  Atom+Function  
  ----- ------------  ---------------      ----- ------------  ---------------
   149      1.621844  16 H  s               140     -1.049169  15 C  py        
   107     -0.996714   8 H  s               166     -1.000244  18 H  s         
   138     -0.880066  15 C  s                 6      0.858338   1 C  s         
    51     -0.796498   4 C  s               132     -0.733991  14 H  s         
   157      0.664244  17 C  py              113      0.653606  11 H  s         

 Vector   46  Occ=0.000000D+00  E= 2.436774D-01
              MO Center= -1.1D+00, -9.3D-01, -3.2D-05, r^2= 1.2D+01
   Bfn.  Coefficient  Atom+Function         Bfn.  Coefficient  Atom+Function  
  ----- ------------  ---------------      ----- ------------  ---------------
   107      1.313910   8 H  s               113     -1.237920  11 H  s         
     6     -1.059163   1 C  s                51      1.007400   4 C  s         
   109     -0.982103   9 H  s               166     -0.910694  18 H  s         
    23     -0.883342   2 C  py              149      0.885545  16 H  s         
   156     -0.785447  17 C  px                8      0.735100   1 C  py        

 Vector   47  Occ=0.000000D+00  E= 2.463985D-01
              MO Center=  8.9D-01, -1.7D-01, -4.3D-04, r^2= 1.1D+01
   Bfn.  Coefficient  Atom+Function         Bfn.  Coefficient  Atom+Function  
  ----- ------------  ---------------      ----- ------------  ---------------
    21      1.371892   2 C  s               132     -1.188077  14 H  s         
    51     -1.056243   4 C  s               111      1.005979  10 H  s         
   109     -0.975818   9 H  s               166      0.831498  18 H  s         
    38      0.821845   3 C  py               81      0.824784   6 C  s         
    36     -0.772247   3 C  s                66     -0.752849   5 C  s         

 Vector   48  Occ=0.000000D+00  E= 2.645835D-01
              MO Center= -2.3D-01,  1.1D-01,  1.8D-04, r^2= 7.7D+00
   Bfn.  Coefficient  Atom+Function         Bfn.  Coefficient  Atom+Function  
  ----- ------------  ---------------      ----- ------------  ---------------
   121      1.219810  13 C  s                96     -1.095419   7 C  s         
   155     -1.062995  17 C  s                83      0.943878   6 C  py        
   139     -0.899475  15 C  px              113      0.880799  11 H  s         
    66      0.867482   5 C  s                38     -0.830136   3 C  py        
    52      0.736692   4 C  px               23     -0.671291   2 C  py        

 Vector   49  Occ=0.000000D+00  E= 3.122634D-01
              MO Center=  7.2D-01,  3.7D-01, -1.5D-04, r^2= 7.8D+00
   Bfn.  Coefficient  Atom+Function         Bfn.  Coefficient  Atom+Function  
  ----- ------------  ---------------      ----- ------------  ---------------
    66      2.420209   5 C  s               138     -1.714009  15 C  s         
   123      1.532102  13 C  py               36     -1.378459   3 C  s         
     6      1.251461   1 C  s                96      1.016252   7 C  s         
    67      0.990937   5 C  px               21     -0.963744   2 C  s         
    81     -0.967796   6 C  s               156      0.887523  17 C  px        

 Vector   50  Occ=0.000000D+00  E= 3.191104D-01
              MO Center= -3.4D-01, -1.8D-01,  2.1D-05, r^2= 7.3D+00
   Bfn.  Coefficient  Atom+Function         Bfn.  Coefficient  Atom+Function  
  ----- ------------  ---------------      ----- ------------  ---------------
     6      1.817034   1 C  s                81     -1.315908   6 C  s         
    96      1.119586   7 C  s                53      1.050646   4 C  py        
   155     -1.050009  17 C  s                51     -0.958046   4 C  s         
     8      0.948458   1 C  py               22      0.847276   2 C  px        
    36     -0.771154   3 C  s                68     -0.766322   5 C  py        

 Vector   51  Occ=0.000000D+00  E= 3.516864D-01
              MO Center=  2.3D-01,  1.0D+00,  4.1D-04, r^2= 7.2D+00
   Bfn.  Coefficient  Atom+Function         Bfn.  Coefficient  Atom+Function  
  ----- ------------  ---------------      ----- ------------  ---------------
    96      2.599968   7 C  s               121      1.775874  13 C  s         
    66     -1.721736   5 C  s               155     -1.720724  17 C  s         
   157      1.425567  17 C  py               98      1.244903   7 C  py        
    83     -1.228545   6 C  py                6     -1.142682   1 C  s         
    51     -1.077830   4 C  s               122     -1.059310  13 C  px        

 Vector   52  Occ=0.000000D+00  E= 3.821391D-01
              MO Center= -5.8D-01, -8.8D-01, -1.6D-04, r^2= 7.1D+00
   Bfn.  Coefficient  Atom+Function         Bfn.  Coefficient  Atom+Function  
  ----- ------------  ---------------      ----- ------------  ---------------
    21      2.508473   2 C  s                96     -2.015287   7 C  s         
    81      1.962094   6 C  s                36     -1.771907   3 C  s         
     7     -1.669373   1 C  px               82      1.558074   6 C  px        
    66      1.459487   5 C  s                51     -1.262168   4 C  s         
    37      1.218645   3 C  px              155     -1.164540  17 C  s         

 Vector   53  Occ=0.000000D+00  E= 4.064458D-01
              MO Center= -8.0D-02, -2.0D-01, -1.9D-05, r^2= 7.0D+00
   Bfn.  Coefficient  Atom+Function         Bfn.  Coefficient  Atom+Function  
  ----- ------------  ---------------      ----- ------------  ---------------
    51      2.490892   4 C  s                38      2.020615   3 C  py        
    83      1.816199   6 C  py               66     -1.639349   5 C  s         
   138      1.558393  15 C  s                68      1.445680   5 C  py        
    81     -1.422081   6 C  s                53      1.275559   4 C  py        
   122      1.239402  13 C  px              121     -1.173867  13 C  s         

 Vector   54  Occ=0.000000D+00  E= 4.310362D-01
              MO Center=  1.8D-01, -1.1D-01,  5.1D-06, r^2= 8.7D+00
   Bfn.  Coefficient  Atom+Function         Bfn.  Coefficient  Atom+Function  
  ----- ------------  ---------------      ----- ------------  ---------------
    36      3.595341   3 C  s                68      3.556800   5 C  py        
    81     -3.172107   6 C  s                97     -2.823942   7 C  px        
   155      2.040258  17 C  s               121     -1.952782  13 C  s         
    98     -1.866629   7 C  py                7     -1.671110   1 C  px        
   122      1.567930  13 C  px               53      1.443892   4 C  py        

 Vector   55  Occ=0.000000D+00  E= 4.621134D-01
              MO Center= -3.6D-01, -7.9D-01, -1.5D-04, r^2= 5.5D+00
   Bfn.  Coefficient  Atom+Function         Bfn.  Coefficient  Atom+Function  
  ----- ------------  ---------------      ----- ------------  ---------------
   121      2.122628  13 C  s               138     -2.023284  15 C  s         
    96     -1.654782   7 C  s               155      1.641328  17 C  s         
   140      1.533807  15 C  py               66     -1.522870   5 C  s         
    51      1.375867   4 C  s                38      1.364314   3 C  py        
    21      1.279712   2 C  s                 6      1.256490   1 C  s         

 Vector   56  Occ=0.000000D+00  E= 4.916452D-01
              MO Center= -1.3D-01, -3.8D-02,  9.7D-06, r^2= 6.4D+00
   Bfn.  Coefficient  Atom+Function         Bfn.  Coefficient  Atom+Function  
  ----- ------------  ---------------      ----- ------------  ---------------
     6      3.013021   1 C  s                66     -2.017917   5 C  s         
    52     -1.865699   4 C  px               36      1.847813   3 C  s         
    96     -1.691390   7 C  s                51     -1.650713   4 C  s         
     8      1.623916   1 C  py               82      1.605733   6 C  px        
    21     -1.456506   2 C  s                22      1.438385   2 C  px        

 Vector   57  Occ=0.000000D+00  E= 5.044164D-01
              MO Center=  4.1D-01,  7.2D-01,  4.6D-05, r^2= 6.8D+00
   Bfn.  Coefficient  Atom+Function         Bfn.  Coefficient  Atom+Function  
  ----- ------------  ---------------      ----- ------------  ---------------
    67      2.823075   5 C  px               98     -2.726189   7 C  py        
   123      2.340517  13 C  py              139     -1.984863  15 C  px        
   157     -1.773227  17 C  py               37     -1.759153   3 C  px        
   156     -1.719233  17 C  px               21     -1.522935   2 C  s         
    97      1.372668   7 C  px               83      1.105538   6 C  py        


------------------------------------------------------------
EAF file 0: "./test-azulene.aoints.0" size=621281280 bytes
------------------------------------------------------------
               write      read    awrite     aread      wait
               -----      ----    ------     -----      ----
     calls:     1185         2         0      2368      2368
   data(b): 6.21e+08  1.05e+06  0.00e+00  1.24e+09
   time(s): 0.00e+00  0.00e+00  0.00e+00  0.00e+00  0.00e+00
rate(mb/s): 0.00e+00  0.00e+00
------------------------------------------------------------


 center of mass
 --------------
 x =   0.00707977 y =   0.01535510 z =   0.00000809

 moments of inertia (a.u.)
 ------------------
        1287.371407296466        -317.064654808201           0.234131089235
        -317.064654808201         783.870635331557          -0.334344024632
           0.234131089235          -0.334344024632        2071.241510683729

     Multipole analysis of the density
     ---------------------------------

     L   x y z        total         alpha         beta         nuclear
     -   - - -        -----         -----         ----         -------
     0   0 0 0     -0.000000    -34.000000    -34.000000     68.000000

     1   1 0 0     -0.153951     -0.076976     -0.076976      0.000000
     1   0 1 0     -0.447179     -0.223589     -0.223589     -0.000000
     1   0 0 1     -0.000131     -0.000066     -0.000066     -0.000000

     2   2 0 0    -37.602407   -246.856567   -246.856567    456.110728
     2   1 1 0     -0.379646    -85.870358    -85.870358    171.361070
     2   1 0 1     -0.004463      0.068387      0.068387     -0.141236
     2   0 2 0    -37.636317   -383.121225   -383.121225    728.606134
     2   0 1 1      0.004224     -0.095165     -0.095165      0.194554
     2   0 0 2    -47.000093    -23.500126    -23.500126      0.000159


 Parallel integral file used    1185 records with       0 large values


          -------------
          Dipole Moment
          -------------

 Center of charge (in au) is the expansion point
         X =       0.0000000 Y =      -0.0000000 Z =      -0.0000000

   Dipole moment        0.4729372995 A.U.
             DMX       -0.1539514801 DMXEFC        0.0000000000
             DMY       -0.4471785033 DMYEFC        0.0000000000
             DMZ       -0.0001311625 DMZEFC        0.0000000000
   -EFC- dipole         0.0000000000 A.U.
   Total dipole         0.4729372995 A.U.

   Dipole moment        1.2020957967 Debye(s)
             DMX       -0.3913085885 DMXEFC        0.0000000000
             DMY       -1.1366229726 DMYEFC        0.0000000000
             DMZ       -0.0003333843 DMZEFC        0.0000000000
   -EFC- dipole         0.0000000000 DEBYE(S)
   Total dipole         1.2020957967 DEBYE(S)

 1 a.u. = 2.541766 Debyes 


          ----------------------------
          Mulliken population analysis
          ----------------------------

 Total      S,P,D,... shell population
 --------------------------------
    Atom          S        P        D
 --------------------------------------------------------------------------------------
     1 C      3.19241   2.91989   0.01900
     2 C      3.18853   2.97057   0.01702
     3 C      3.20343   2.96386   0.02068
     4 C      3.18873   2.98156   0.01693
     5 C      3.14927   2.76599   0.01725
     6 C      3.18546   2.94329   0.02069
     7 C      3.13198   2.77850   0.01710
     8 H      0.83256   0.00000   0.00000
     9 H      0.83805   0.00000   0.00000
    10 H      0.82757   0.00000   0.00000
    11 H      0.83947   0.00000   0.00000
    12 H      0.83092   0.00000   0.00000
    13 C      3.19557   2.98954   0.01821
    14 H      0.84296   0.00000   0.00000
    15 C      3.22665   2.92980   0.02046
    16 H      0.83464   0.00000   0.00000
    17 C      3.20917   3.01074   0.01834
    18 H      0.84322   0.00000   0.00000

          ----- Total      gross population on atoms ----

              1  C    6.0     6.13130
              2  C    6.0     6.17612
              3  C    6.0     6.18796
              4  C    6.0     6.18722
              5  C    6.0     5.93250
              6  C    6.0     6.14945
              7  C    6.0     5.92758
              8  H    1.0     0.83256
              9  H    1.0     0.83805
             10  H    1.0     0.82757
             11  H    1.0     0.83947
             12  H    1.0     0.83092
             13  C    6.0     6.20332
             14  H    1.0     0.84296
             15  C    6.0     6.17690
             16  H    1.0     0.83464
             17  C    6.0     6.23824
             18  H    1.0     0.84322

          ----- Bond indices -----
  1- 1   0.00000  1- 2   1.57548  1- 3  -0.00058  1- 4   1.30838  1- 5   0.06130  1- 6  -0.00121  1- 7   0.03222  1- 8   0.92484
  2- 1   1.57548  2- 2   0.00000  2- 3   1.28261  2- 4  -0.00326  2- 5   0.01052  2- 6   0.06785  2- 7   0.00695  2- 8  -0.00665
  3- 1  -0.00058  3- 2   1.28261  3- 3   0.00000  3- 4   0.03696  3- 5   1.54396  3- 6   0.00824  3- 7   0.00520  3- 8   0.00788
  4- 1   1.30838  4- 2  -0.00326  4- 3   0.03696  4- 4   0.00000  4- 5   0.00533  4- 6   1.54698  4- 7   0.01412  4- 8  -0.00674
  5- 1   0.06130  5- 2   0.01052  5- 3   1.54396  5- 4   0.00533  5- 5   0.00000  5- 6   0.01755  5- 7   1.09804  5- 8  -0.00031
  6- 1  -0.00121  6- 2   0.06785  6- 3   0.00824  6- 4   1.54698  6- 5   0.01755  6- 6   0.00000  6- 7   1.29520  6- 8   0.00609
  7- 1   0.03222  7- 2   0.00695  7- 3   0.00520  7- 4   0.01412  7- 5   1.09804  7- 6   1.29520  7- 7   0.00000  7- 8  -0.00029
  8- 1   0.92484  8- 2  -0.00665  8- 3   0.00788  8- 4  -0.00674  8- 5  -0.00031  8- 6   0.00609  8- 7  -0.00029  8- 8   0.00000
  9- 1  -0.00649  9- 2   0.92460  9- 3  -0.00464  9- 4   0.00832  9- 5   0.00623  9- 6  -0.00014  9- 7  -0.00016  9- 8   0.00138
 10- 1   0.00645 10- 2  -0.00804 10- 3   0.91772 10- 4  -0.00035 10- 5  -0.00709 10- 6  -0.00015 10- 7   0.01104 10- 8   0.00163
 11- 1  -0.00651 11- 2   0.00658 11- 3  -0.00017 11- 4   0.92488 11- 5  -0.00014 11- 6  -0.00439 11- 7   0.00828 11- 8   0.00065
 12- 1   0.00811 12- 2  -0.00025 12- 3  -0.00025 12- 4  -0.00812 12- 5   0.00966 12- 6   0.91922 12- 7  -0.00811 12- 8   0.00162
 13- 1   0.00280 13- 2   0.05081 13- 3   0.00249 13- 4   0.03803 13- 5   1.24101 13- 6   0.01498 13- 7   0.05247 13- 8  -0.00004
 14- 1  -0.00010 14- 2   0.00024 14- 3   0.00008 14- 4   0.00019 14- 5  -0.00708 14- 6   0.00037 14- 7   0.00808 14- 8   0.00001
 15- 1   0.03274 15- 2   0.00484 15- 3   0.06531 15- 4   0.00510 15- 5   0.02325 15- 6   0.04402 15- 7   0.01388 15- 8   0.00013
 16- 1   0.00009 16- 2   0.00006 16- 3   0.00143 16- 4  -0.00006 16- 5   0.00788 16- 6   0.00143 16- 7   0.00600 16- 8   0.00000
 17- 1   0.00651 17- 2   0.03582 17- 3   0.03778 17- 4   0.08049 17- 5   0.03194 17- 6  -0.00360 17- 7   1.49165 17- 8  -0.00003
 18- 1  -0.00007 18- 2   0.00018 18- 3   0.00034 18- 4   0.00037 18- 5   0.00960 18- 6   0.00043 18- 7  -0.00695 18- 8   0.00001
  1- 9  -0.00649  1-10   0.00645  1-11  -0.00651  1-12   0.00811  1-13   0.00280  1-14  -0.00010  1-15   0.03274  1-16   0.00009
  2- 9   0.92460  2-10  -0.00804  2-11   0.00658  2-12  -0.00025  2-13   0.05081  2-14   0.00024  2-15   0.00484  2-16   0.00006
  3- 9  -0.00464  3-10   0.91772  3-11  -0.00017  3-12  -0.00025  3-13   0.00249  3-14   0.00008  3-15   0.06531  3-16   0.00143
  4- 9   0.00832  4-10  -0.00035  4-11   0.92488  4-12  -0.00812  4-13   0.03803  4-14   0.00019  4-15   0.00510  4-16  -0.00006
  5- 9   0.00623  5-10  -0.00709  5-11  -0.00014  5-12   0.00966  5-13   1.24101  5-14  -0.00708  5-15   0.02325  5-16   0.00788
  6- 9  -0.00014  6-10  -0.00015  6-11  -0.00439  6-12   0.91922  6-13   0.01498  6-14   0.00037  6-15   0.04402  6-16   0.00143
  7- 9  -0.00016  7-10   0.01104  7-11   0.00828  7-12  -0.00811  7-13   0.05247  7-14   0.00808  7-15   0.01388  7-16   0.00600
  8- 9   0.00138  8-10   0.00163  8-11   0.00065  8-12   0.00162  8-13  -0.00004  8-14   0.00001  8-15   0.00013  8-16   0.00000
  9- 9   0.00000  9-10   0.00067  9-11   0.00158  9-12   0.00005  9-13   0.00149  9-14   0.00001  9-15  -0.00010  9-16   0.00005
 10- 9   0.00067 10-10   0.00000 10-11   0.00000 10-12   0.00019 10-13   0.00220 10-14   0.00336 10-15   0.00033 10-16   0.00006
 11- 9   0.00158 11-10   0.00000 11-11   0.00000 11-12   0.00136 11-13   0.00017 11-14  -0.00000 11-15  -0.00003 11-16   0.00004
 12- 9   0.00005 12-10   0.00019 12-11   0.00136 12-12   0.00000 12-13   0.00077 12-14   0.00019 12-15   0.00019 12-16   0.00003
 13- 9   0.00149 13-10   0.00220 13-11   0.00017 13-12   0.00077 13-13   0.00000 13-14   0.92726 13-15   1.55278 13-16  -0.00709
 14- 9   0.00001 14-10   0.00336 14-11  -0.00000 14-12   0.00019 14-13   0.92726 14-14   0.00000 14-15  -0.00702 14-16   0.00073
 15- 9  -0.00010 15-10   0.00033 15-11  -0.00003 15-12   0.00019 15-13   1.55278 15-14  -0.00702 15-15   0.00000 15-16   0.92807
 16- 9   0.00005 16-10   0.00006 16-11   0.00004 16-12   0.00003 16-13  -0.00709 16-14   0.00073 16-15   0.92807 16-16   0.00000
 17- 9   0.00020 17-10   0.00060 17-11   0.00121 17-12   0.00109 17-13  -0.00157 17-14   0.00764 17-15   1.28091 17-16  -0.00701
 18- 9  -0.00000 18-10   0.00022 18-11   0.00001 18-12   0.00328 18-13   0.00606 18-14   0.00132 18-15  -0.00682 18-16   0.00043
  1-17   0.00651  1-18  -0.00007
  2-17   0.03582  2-18   0.00018
  3-17   0.03778  3-18   0.00034
  4-17   0.08049  4-18   0.00037
  5-17   0.03194  5-18   0.00960
  6-17  -0.00360  6-18   0.00043
  7-17   1.49165  7-18  -0.00695
  8-17  -0.00003  8-18   0.00001
  9-17   0.00020  9-18  -0.00000
 10-17   0.00060 10-18   0.00022
 11-17   0.00121 11-18   0.00001
 12-17   0.00109 12-18   0.00328
 13-17  -0.00157 13-18   0.00606
 14-17   0.00764 14-18   0.00132
 15-17   1.28091 15-18  -0.00682
 16-17  -0.00701 16-18   0.00043
 17-17   0.00000 17-18   0.92770
 18-17   0.92770 18-18   0.00000

 Large bond indices
 ------------------
  1   C -  2   C    1.57548
  1   C -  4   C    1.30838
  1   C -  8   H    0.92484
  2   C -  3   C    1.28261
  2   C -  9   H    0.92460
  3   C -  5   C    1.54396
  3   C - 10   H    0.91772
  4   C -  6   C    1.54698
  4   C - 11   H    0.92488
  5   C -  7   C    1.09804
  5   C - 13   C    1.24101
  6   C -  7   C    1.29520
  6   C - 12   H    0.91922
  7   C - 17   C    1.49165
 13   C - 14   H    0.92726
 13   C - 15   C    1.55278
 15   C - 16   H    0.92807
 15   C - 17   C    1.28091
 17   C - 18   H    0.92770

                                                                Free electrons             Valency
                              Number of         Sum of          + Bond indices         - Bond indices    
                Valency     Free electrons    Bond indices     =Mulliken charge     = Net spin population
     1  C       3.94394        2.18736          3.94394           6.13130                -0.00000
     2  C       3.94835        2.22777          3.94835           6.17612                -0.00000
     3  C       3.90436        2.28360          3.90436           6.18796                 0.00000
     4  C       3.95062        2.23660          3.95062           6.18722                 0.00000
     5  C       4.05164        1.88087          4.05164           5.93250                 0.00000
     6  C       3.91289        2.23657          3.91289           6.14945                -0.00000
     7  C       4.02761        1.89997          4.02761           5.92758                 0.00000
     8  H       0.93017       -0.09761          0.93017           0.83256                -0.00000
     9  H       0.93304       -0.09499          0.93304           0.83805                -0.00000
    10  H       0.92885       -0.10128          0.92885           0.82757                -0.00000
    11  H       0.93352       -0.09404          0.93352           0.83947                -0.00000
    12  H       0.92902       -0.09810          0.92902           0.83092                -0.00000
    13  C       3.88462        2.31870          3.88462           6.20332                 0.00000
    14  H       0.93526       -0.09230          0.93526           0.84296                -0.00000
    15  C       3.93758        2.23933          3.93758           6.17690                -0.00000
    16  H       0.93213       -0.09750          0.93213           0.83464                -0.00000
    17  C       3.89132        2.34693          3.89132           6.23824                 0.00000
    18  H       0.93609       -0.09287          0.93609           0.84322                -0.00000

 Task  times  cpu:       36.4s     wall:       82.3s
 Summary of allocated global arrays
-----------------------------------
  No active global arrays



                         GA Statistics for process    0
                         ------------------------------

       create   destroy   get      put      acc     scatter   gather  read&inc
calls:  430      430     1.48e+05 9222     9.80e+04  342        0     3468     
number of processes/call 1.00e+00 1.00e+00 1.00e+00 0.00e+00 0.00e+00
bytes total:             1.35e+08 1.55e+07 8.75e+07 3.20e+01 0.00e+00 2.77e+04
bytes remote:            0.00e+00 0.00e+00 0.00e+00 0.00e+00 0.00e+00 0.00e+00
Max memory consumed for GA by this process: 8597472 bytes
MA_summarize_allocated_blocks: starting scan ...
MA_summarize_allocated_blocks: scan completed: 0 heap blocks, 0 stack blocks
MA usage statistics:

	allocation statistics:
					      heap	     stack
					      ----	     -----
	current number of blocks	         0	         0
	maximum number of blocks	        22	        51
	current total bytes		         0	         0
	maximum total bytes		  24728336	  19188840
	maximum total K-bytes		     24729	     19189
	maximum total M-bytes		        25	        20


                                NWChem Input Module
                                -------------------





                                     CITATION
                                     --------
                Please cite the following reference when publishing
                           results obtained with NWChem:

                 M. Valiev, E.J. Bylaska, N. Govind, K. Kowalski,
              T.P. Straatsma, H.J.J. van Dam, D. Wang, J. Nieplocha,
                        E. Apra, T.L. Windus, W.A. de Jong
                 "NWChem: a comprehensive and scalable open-source
                  solution for large scale molecular simulations"
                      Comput. Phys. Commun. 181, 1477 (2010)
                           doi:10.1016/j.cpc.2010.04.018

                                      AUTHORS
                                      -------
          E. Apra, E. J. Bylaska, W. A. de Jong, N. Govind, K. Kowalski,
       T. P. Straatsma, M. Valiev, H. J. J. van Dam, D. Wang, T. L. Windus,
        J. Hammond, J. Autschbach, K. Bhaskaran-Nair, J. Brabec, K. Lopata,
       S. A. Fischer, S. Krishnamoorthy, W. Ma, M. Klemm, O. Villa, Y. Chen,
    V. Anisimov, F. Aquino, S. Hirata, M. T. Hackler, T. Risthaus, M. Malagoli,
       A. Marenich, A. Otero-de-la-Roza, J. Mullin, P. Nichols, R. Peverati,
     J. Pittner, Y. Zhao, P.-D. Fan, A. Fonari, M. Williamson, R. J. Harrison,
       J. R. Rehr, M. Dupuis, D. Silverstein, D. M. A. Smith, J. Nieplocha,
        V. Tipparaju, M. Krishnan, B. E. Van Kuiken, A. Vazquez-Mayagoitia,
        L. Jensen, M. Swart, Q. Wu, T. Van Voorhis, A. A. Auer, M. Nooijen,
      L. D. Crosby, E. Brown, G. Cisneros, G. I. Fann, H. Fruchtl, J. Garza,
        K. Hirao, R. A. Kendall, J. A. Nichols, K. Tsemekhman, K. Wolinski,
     J. Anchell, D. E. Bernholdt, P. Borowski, T. Clark, D. Clerc, H. Dachsel,
   M. J. O. Deegan, K. Dyall, D. Elwood, E. Glendening, M. Gutowski, A. C. Hess,
         J. Jaffe, B. G. Johnson, J. Ju, R. Kobayashi, R. Kutteh, Z. Lin,
   R. Littlefield, X. Long, B. Meng, T. Nakajima, S. Niu, L. Pollack, M. Rosing,
   K. Glaesemann, G. Sandrone, M. Stave, H. Taylor, G. Thomas, J. H. van Lenthe,
                               A. T. Wong, Z. Zhang.

 Total times  cpu:       36.5s     wall:       82.4s
